SnCl DZVP                                                               
SP        ROB3LYP                                                     Gen                 
Number of atoms                            I                2
Charge                                     I                0
Multiplicity                               I                2
Number of electrons                        I               67
Number of alpha electrons                  I               34
Number of beta electrons                   I               33
Number of basis functions                  I               54
Number of independant functions            I               54
Number of point charges in /Mol/           I                0
Number of translation vectors              I                0
Number of symbols in /Mol/                 I                0
Info1-9                                    I   N=           9
         101         100           0           1           0         110
           1          18        -502
Num ILSW                                   I              100
ILSW                                       I   N=         100
           0           0           0           0           2           0
           0           0           3           0         402      200000
           0           0           0           0           0           0
           0      800000           1           1           0           0
           1           0           0           0     1000000           0
           0           0           0           0          -1           0
           0           0           0           0           0           0
           0           0           0           1           0           0
           0           0           1      720000      810000           0
           0           0           0           0           0           0
           0           0           0           0           0           0
           0           0           0           0           0           0
           0           0           0           0           0           0
           0           0           0           0           0           0
           0           0           0           0           0           0
           0           0           0           0           0           0
           0           0           0           0
Number of contracted shells                I               22
Highest angular momentum                   I                2
Largest degree of contraction              I                6
Number of primitive shells                 I               62
Pure/Cartesian d shells                    I                0
Pure/Cartesian f shells                    I                0
Virial Ratio                               R      2.001907892861306E+00
SCF Energy                                 R     -6.484950135904739E+03
Total Energy                               R     -6.484950135904739E+03
S**2                                       R      7.499999999995808E-01
S**2 after annihilation                    R      7.499999999910181E-01
RMS Density                                R      3.798897064338223E-09
Atomic numbers                             I   N=           2
          50          17
Nuclear charges                            R   N=           2
  5.00000000E+01  1.70000000E+01
Current cartesian coordinates              R   N=           6
  0.00000000E+00  0.00000000E+00  1.13205877E+00  0.00000000E+00  0.00000000E+00
 -3.32958463E+00
Atom Types                                 C   N=           2
                        
Int Atom Types                             I   N=           2
           0           0
Force Field                                I                0
MM charges                                 R   N=           2
  0.00000000E+00  0.00000000E+00
Integer atomic weights                     I   N=           2
         118          35
Real atomic weights                        R   N=           2
  1.17901800E+02  3.49688527E+01
Atom residue info                          I   N=           2
           0           0
Atom fragment info                         I   N=           2
           0           0
Atom residue num                           I   N=           2
           0           0
Nuclear spins                              I   N=           2
           0           3
Nuclear ZEff                               R   N=           2
 -6.20000000E+01 -1.42400000E+01
Nuclear QMom                               R   N=           2
  0.00000000E+00 -8.24900000E+00
Nuclear GFac                               R   N=           2
  0.00000000E+00  8.21874000E-01
MicOpt                                     I   N=           2
           0           0
Constraint Structure                       R   N=           6
  0.00000000E+00  0.00000000E+00  1.13205877E+00  0.00000000E+00  0.00000000E+00
 -3.32958463E+00
ONIOM Charges                              I   N=          16
           0           0           0           0           0           0
           0           0           0           0           0           0
           0           0           0           0
ONIOM Multiplicities                       I   N=          16
           2           0           0           0           0           0
           0           0           0           0           0           0
           0           0           0           0
Atom Layers                                I   N=           2
           1           1
Atom Modifiers                             I   N=           2
           0           0
Atom Modified Types                        C   N=           2
                        
Int Atom Modified Types                    I   N=           2
           0           0
Link Atoms                                 I   N=           2
           0           0
Atom Modified MM Charges                   R   N=           2
  0.00000000E+00  0.00000000E+00
Link Distances                             R   N=           8
  0.00000000E+00  0.00000000E+00  0.00000000E+00  0.00000000E+00  0.00000000E+00
  0.00000000E+00  0.00000000E+00  0.00000000E+00
MxBond                                     I                1
NBond                                      I   N=           2
           1           1
IBond                                      I   N=           2
           2           1
RBond                                      R   N=           2
  1.00000000E+00  1.00000000E+00
Shell types                                I   N=          22
           0           0           0           0           0           0
           1           1           1           1           1          -2
          -2          -2           0           0           0           0
           1           1           1          -2
Number of primitives per shell             I   N=          22
           6           3           3           3           2           1
           5           3           3           2           1           5
           3           1           6           3           2           1
           5           2           1           1
Shell to atom map                          I   N=          22
           1           1           1           1           1           1
           1           1           1           1           1           1
           1           1           2           2           2           2
           2           2           2           2
Primitive exponents                        R   N=          62
  2.45047360E+05  3.67500260E+04  8.34277350E+03  2.34747230E+03  7.62836200E+02
  2.62737930E+02  4.98732830E+02  6.09504580E+01  2.63056100E+01  4.83039130E+01
  8.66714370E+00  3.95646920E+00  7.76814460E+00  1.75268360E+00  7.70296100E-01
  1.20051550E+00  1.94702600E-01  7.42741000E-02  3.58169690E+03  8.46744340E+02
  2.70732080E+02  9.82183720E+01  3.74960670E+01  1.46343380E+02  1.79099630E+01
  6.91641320E+00  3.08060130E+00  1.31196840E+00  5.58685900E-01  3.00903700E-01
  1.15427300E-01  4.34033000E-02  3.54240330E+02  1.04710750E+02  3.86067210E+01
  1.53717900E+01  6.09218330E+00  4.84719880E+00  1.72875630E+00  5.65428300E-01
  1.54000000E-01  2.63514580E+04  3.94505670E+03  8.92438350E+02  2.49417430E+02
  7.97215720E+01  2.68311450E+01  5.27853010E+01  5.61564290E+00  2.10590760E+00
  3.55861490E+00  4.84798100E-01  1.73331000E-01  2.71078210E+02  6.35472080E+01
  1.97371090E+01  6.78899370E+00  2.34803030E+00  1.10668640E+00  3.82968000E-01
  1.25113300E-01  7.50000000E-01
Contraction coefficients                   R   N=          62
 -1.61619995E-03 -1.23710997E-02 -6.21338982E-02 -2.16397694E-01 -4.62974887E-01
 -3.84447789E-01 -1.13605197E-01  6.32718186E-01  4.41608590E-01 -2.65535891E-01
  8.30889672E-01  3.17672389E-01 -3.27576511E-01  7.93946826E-01  4.04934113E-01
 -3.55298218E-01  1.16195427E+00  1.00000000E+00 -7.36589962E-03 -5.67096971E-02
 -2.36337488E-01 -5.06028374E-01 -3.62604581E-01  2.48183995E-02 -4.96192591E-01
 -5.74425589E-01  4.19303772E-01  5.28903864E-01  1.39170091E-01 -3.68985771E-01
 -6.90810136E-01  1.00000000E+00 -1.32982000E-02 -9.43270000E-02 -3.11078200E-01
 -4.99583900E-01 -3.06913800E-01 -2.66455817E-01 -5.58161435E-01 -3.76159124E-01
  1.00000000E+00  1.73239996E-03  1.33108997E-02  6.66747986E-02  2.30050595E-01
  4.74230690E-01  3.59523992E-01 -9.56296060E-02  5.88084037E-01  4.86698231E-01
  2.94527427E-01 -1.12224311E+00  1.00000000E+00 -1.09256996E-02 -7.75908971E-02
 -2.77515890E-01 -5.03193281E-01 -3.34842587E-01 -3.59631274E-01 -7.10940279E-01
  1.00000000E+00  1.00000000E+00
Coordinates of each shell                  R   N=          66
  0.00000000E+00  0.00000000E+00  1.13205877E+00  0.00000000E+00  0.00000000E+00
  1.13205877E+00  0.00000000E+00  0.00000000E+00  1.13205877E+00  0.00000000E+00
  0.00000000E+00  1.13205877E+00  0.00000000E+00  0.00000000E+00  1.13205877E+00
  0.00000000E+00  0.00000000E+00  1.13205877E+00  0.00000000E+00  0.00000000E+00
  1.13205877E+00  0.00000000E+00  0.00000000E+00  1.13205877E+00  0.00000000E+00
  0.00000000E+00  1.13205877E+00  0.00000000E+00  0.00000000E+00  1.13205877E+00
  0.00000000E+00  0.00000000E+00  1.13205877E+00  0.00000000E+00  0.00000000E+00
  1.13205877E+00  0.00000000E+00  0.00000000E+00  1.13205877E+00  0.00000000E+00
  0.00000000E+00  1.13205877E+00  0.00000000E+00  0.00000000E+00 -3.32958463E+00
  0.00000000E+00  0.00000000E+00 -3.32958463E+00  0.00000000E+00  0.00000000E+00
 -3.32958463E+00  0.00000000E+00  0.00000000E+00 -3.32958463E+00  0.00000000E+00
  0.00000000E+00 -3.32958463E+00  0.00000000E+00  0.00000000E+00 -3.32958463E+00
  0.00000000E+00  0.00000000E+00 -3.32958463E+00  0.00000000E+00  0.00000000E+00
 -3.32958463E+00
Alpha Orbital Energies                     R   N=          54
 -1.03069180E+03 -1.52790727E+02 -1.42941761E+02 -1.42940910E+02 -1.42940041E+02
 -1.01541004E+02 -2.97094022E+01 -2.56241140E+01 -2.56216042E+01 -2.56191850E+01
 -1.80392076E+01 -1.80389051E+01 -1.80373349E+01 -1.80355399E+01 -1.80353190E+01
 -9.44515715E+00 -7.21004173E+00 -7.20674706E+00 -7.20483715E+00 -4.79886040E+00
 -3.42515637E+00 -3.41902636E+00 -3.41173286E+00 -1.12900128E+00 -1.12615271E+00
 -1.11936153E+00 -1.11452005E+00 -1.11428270E+00 -7.99886847E-01 -4.44093004E-01
 -3.27895703E-01 -3.23260851E-01 -3.09773970E-01 -8.92144271E-02 -1.24513231E-01
 -3.66994529E-02  9.86204009E-02  1.01357134E-01  1.16941879E-01  1.67905182E-01
  2.08297811E-01  2.09937218E-01  2.26608798E-01  2.31853301E-01  2.63440356E-01
  4.20326427E-01  4.24167009E-01  4.72644574E-01  7.33355308E-01  8.80723147E-01
  8.80746407E-01  9.18767654E-01  9.21659638E-01  1.08803071E+00
Alpha MO coefficients                      R   N=        2916
  9.94299404E-01 -1.75371117E-02  4.51343543E-03 -1.68163839E-03  9.21229185E-04
 -4.51843275E-04  0.00000000E+00  0.00000000E+00 -2.87271653E-06  0.00000000E+00
  0.00000000E+00  6.56808732E-06  0.00000000E+00  0.00000000E+00  1.51740985E-05
  0.00000000E+00  0.00000000E+00  6.67729136E-05  0.00000000E+00  0.00000000E+00
  2.08353449E-05  5.65010379E-08  0.00000000E+00  0.00000000E+00 -5.95852699E-08
  0.00000000E+00  1.81006369E-09  0.00000000E+00  0.00000000E+00  1.90080905E-08
  0.00000000E+00  2.55400509E-05  0.00000000E+00  0.00000000E+00  5.71285883E-09
  0.00000000E+00  7.83602023E-07  6.48685161E-06 -3.38634301E-05 -4.53787952E-05
  0.00000000E+00  0.00000000E+00 -5.27043313E-06  0.00000000E+00  0.00000000E+00
  9.53407978E-06  0.00000000E+00  0.00000000E+00 -8.15402656E-05 -4.14331921E-05
  0.00000000E+00  0.00000000E+00 -2.51122963E-10  0.00000000E+00  3.55956056E-01
  1.05115180E+00  1.23109465E-02 -1.43502272E-03  5.58477723E-04 -2.70199271E-04
  0.00000000E+00  0.00000000E+00  2.86793982E-04  0.00000000E+00  0.00000000E+00
  2.04605957E-05  0.00000000E+00  0.00000000E+00  1.22417913E-05  0.00000000E+00
  0.00000000E+00  3.79104361E-05  0.00000000E+00  0.00000000E+00  1.37992493E-05
  3.72976395E-07  0.00000000E+00  0.00000000E+00  8.68977056E-06  0.00000000E+00
 -1.33951726E-07  0.00000000E+00  0.00000000E+00 -1.97225007E-06  0.00000000E+00
  1.32633579E-05  0.00000000E+00  0.00000000E+00 -3.44954836E-07  0.00000000E+00
  2.72116756E-07  3.61117642E-06 -1.55654447E-05 -1.96674322E-05  0.00000000E+00
  0.00000000E+00 -3.17412932E-06  0.00000000E+00  0.00000000E+00  6.46559510E-06
  0.00000000E+00  0.00000000E+00 -4.41014652E-05 -2.39115368E-05  0.00000000E+00
  0.00000000E+00  6.16545349E-09  0.00000000E+00  0.00000000E+00  0.00000000E+00
  0.00000000E+00  0.00000000E+00  0.00000000E+00  0.00000000E+00  0.00000000E+00
  9.89961743E-01  0.00000000E+00  0.00000000E+00  2.44585223E-02  0.00000000E+00
  0.00000000E+00  3.61090860E-03  0.00000000E+00  0.00000000E+00  1.14984420E-03
  0.00000000E+00  0.00000000E+00  5.31999258E-04  0.00000000E+00  0.00000000E+00
  0.00000000E+00 -1.48640478E-05  0.00000000E+00  0.00000000E+00  0.00000000E+00
  0.00000000E+00  7.12762562E-06  0.00000000E+00  0.00000000E+00  0.00000000E+00
  0.00000000E+00  1.91060055E-05  0.00000000E+00  0.00000000E+00  0.00000000E+00
  0.00000000E+00  0.00000000E+00  0.00000000E+00  0.00000000E+00  2.96796950E-06
  0.00000000E+00  0.00000000E+00 -7.57492290E-06  0.00000000E+00  0.00000000E+00
  2.96122775E-05  0.00000000E+00  0.00000000E+00  0.00000000E+00  3.73734109E-05
  0.00000000E+00  0.00000000E+00 -1.05158917E-04 -3.19665766E-04 -7.43325991E-07
 -7.68580595E-05 -1.41863850E-04  8.04734096E-04  0.00000000E+00  0.00000000E+00
  9.89946657E-01  0.00000000E+00  0.00000000E+00  2.45171575E-02  0.00000000E+00
  0.00000000E+00  3.76304146E-03  0.00000000E+00  0.00000000E+00  1.79320754E-03
  0.00000000E+00  0.00000000E+00  3.84754680E-04 -2.94526387E-05  0.00000000E+00
  0.00000000E+00 -8.18073193E-08  0.00000000E+00  5.34421181E-05  0.00000000E+00
  0.00000000E+00  1.02011983E-08  0.00000000E+00  4.92719581E-04  0.00000000E+00
  0.00000000E+00 -2.80712616E-09  0.00000000E+00  1.30722427E-05  6.43227401E-05
 -4.36955717E-04 -1.18087178E-03  0.00000000E+00  0.00000000E+00 -2.64039741E-05
  0.00000000E+00  0.00000000E+00  8.50311006E-05  0.00000000E+00  0.00000000E+00
 -7.79388485E-04 -1.69238305E-04  0.00000000E+00  0.00000000E+00 -1.41300657E-10
  0.00000000E+00  0.00000000E+00  0.00000000E+00  0.00000000E+00  0.00000000E+00
  0.00000000E+00  0.00000000E+00  9.89964485E-01  0.00000000E+00  0.00000000E+00
  2.44518065E-02  0.00000000E+00  0.00000000E+00  3.60900117E-03  0.00000000E+00
  0.00000000E+00  1.14916616E-03  0.00000000E+00  0.00000000E+00  5.31663168E-04
  0.00000000E+00  0.00000000E+00  0.00000000E+00 -1.51135562E-05  0.00000000E+00
  0.00000000E+00  0.00000000E+00  0.00000000E+00  7.18171783E-06  0.00000000E+00
  0.00000000E+00  0.00000000E+00  0.00000000E+00  1.91024786E-05  0.00000000E+00
  0.00000000E+00  0.00000000E+00  0.00000000E+00  0.00000000E+00  0.00000000E+00
  0.00000000E+00  2.96871360E-06  0.00000000E+00  0.00000000E+00 -7.57680763E-06
  0.00000000E+00  0.00000000E+00  2.96030537E-05  0.00000000E+00  0.00000000E+00
  0.00000000E+00  3.73488687E-05  0.00000000E+00  0.00000000E+00  0.00000000E+00
 -2.88063649E-07  5.95604499E-06  1.60297056E-05  7.49637272E-05  2.33733852E-04
 -1.08577454E-03  0.00000000E+00  0.00000000E+00  9.43780773E-06  0.00000000E+00
  0.00000000E+00 -3.48307905E-05  0.00000000E+00  0.00000000E+00 -9.19410296E-05
  0.00000000E+00  0.00000000E+00 -5.82903830E-04  0.00000000E+00  0.00000000E+00
  4.68031648E-04  1.77494464E-06  0.00000000E+00  0.00000000E+00 -1.30195825E-09
  0.00000000E+00 -6.25792322E-06  0.00000000E+00  0.00000000E+00  4.87290892E-09
  0.00000000E+00 -4.32843680E-04  0.00000000E+00  0.00000000E+00  2.85242105E-08
  0.00000000E+00  9.96729113E-01  1.08322383E-02  4.43231238E-03  3.41433406E-03
  0.00000000E+00  0.00000000E+00 -3.73300026E-05  0.00000000E+00  0.00000000E+00
  7.97052247E-05  0.00000000E+00  0.00000000E+00  7.71762721E-04  9.66948100E-05
  0.00000000E+00  0.00000000E+00 -2.18813297E-07  0.00000000E+00 -1.57341064E-01
 -5.58446473E-01  1.12750062E+00 -1.79107273E-03  2.22476517E-03 -1.13268544E-03
  0.00000000E+00  0.00000000E+00 -6.78526326E-04  0.00000000E+00  0.00000000E+00
  1.55080681E-03  0.00000000E+00  0.00000000E+00 -9.00024913E-05  0.00000000E+00
  0.00000000E+00  1.11621379E-04  0.00000000E+00  0.00000000E+00  4.41997142E-05
  1.38968950E-05  0.00000000E+00  0.00000000E+00  2.37293630E-04  0.00000000E+00
 -1.44641941E-06  0.00000000E+00  0.00000000E+00  4.01051871E-05  0.00000000E+00
  4.43345956E-05  0.00000000E+00  0.00000000E+00  6.34894602E-06  0.00000000E+00
  1.35800041E-06  1.37899092E-05 -6.60269309E-05 -6.75906392E-05  0.00000000E+00
  0.00000000E+00 -1.21587374E-05  0.00000000E+00  0.00000000E+00  2.05768014E-05
  0.00000000E+00  0.00000000E+00 -1.74666472E-04 -9.25585150E-05  0.00000000E+00
  0.00000000E+00 -9.78106373E-08  0.00000000E+00  0.00000000E+00  0.00000000E+00
  0.00000000E+00  0.00000000E+00  0.00000000E+00  0.00000000E+00  0.00000000E+00
 -4.66832183E-01  0.00000000E+00  0.00000000E+00  1.07652644E+00  0.00000000E+00
  0.00000000E+00 -3.71606842E-02  0.00000000E+00  0.00000000E+00 -7.31172665E-03
  0.00000000E+00  0.00000000E+00 -3.21353307E-03  0.00000000E+00  0.00000000E+00
  0.00000000E+00 -5.55472590E-04  0.00000000E+00  0.00000000E+00  0.00000000E+00
  0.00000000E+00 -8.49433873E-05  0.00000000E+00  0.00000000E+00  0.00000000E+00
  0.00000000E+00 -1.22497762E-04  0.00000000E+00  0.00000000E+00  0.00000000E+00
  0.00000000E+00  0.00000000E+00  0.00000000E+00  0.00000000E+00 -2.05833643E-05
  0.00000000E+00  0.00000000E+00  5.99604062E-05  0.00000000E+00  0.00000000E+00
 -1.73861961E-04  0.00000000E+00  0.00000000E+00  0.00000000E+00 -2.21239171E-04
  0.00000000E+00  0.00000000E+00  2.36907688E-04  8.73050456E-04 -1.69391366E-03
  5.09821567E-04  7.82925359E-04 -4.45907275E-03  0.00000000E+00  0.00000000E+00
 -4.66741054E-01  0.00000000E+00  0.00000000E+00  1.07619894E+00  0.00000000E+00
  0.00000000E+00 -3.79669036E-02  0.00000000E+00  0.00000000E+00 -1.08595469E-02
  0.00000000E+00  0.00000000E+00 -2.39139083E-03 -4.98281944E-04  0.00000000E+00
  0.00000000E+00 -7.23852048E-06  0.00000000E+00 -3.49439789E-04  0.00000000E+00
  0.00000000E+00 -7.19348788E-07  0.00000000E+00 -2.76123574E-03  0.00000000E+00
  0.00000000E+00 -7.26385623E-08  0.00000000E+00 -6.70283990E-05 -3.53689962E-04
  2.25283205E-03  6.43736775E-03  0.00000000E+00  0.00000000E+00  1.49199769E-04
  0.00000000E+00  0.00000000E+00 -5.27507506E-04  0.00000000E+00  0.00000000E+00
  4.29597422E-03  8.97004301E-04  0.00000000E+00  0.00000000E+00  1.80299895E-08
  0.00000000E+00  0.00000000E+00  0.00000000E+00  0.00000000E+00  0.00000000E+00
  0.00000000E+00  0.00000000E+00 -4.66841866E-01  0.00000000E+00  0.00000000E+00
  1.07657726E+00  0.00000000E+00  0.00000000E+00 -3.70716767E-02  0.00000000E+00
  0.00000000E+00 -7.28774771E-03  0.00000000E+00  0.00000000E+00 -3.20398930E-03
  0.00000000E+00  0.00000000E+00  0.00000000E+00 -5.65950085E-04  0.00000000E+00
  0.00000000E+00  0.00000000E+00  0.00000000E+00 -8.67530235E-05  0.00000000E+00
  0.00000000E+00  0.00000000E+00  0.00000000E+00 -1.22492167E-04  0.00000000E+00
  0.00000000E+00  0.00000000E+00  0.00000000E+00  0.00000000E+00  0.00000000E+00
  0.00000000E+00 -2.04042807E-05  0.00000000E+00  0.00000000E+00  5.94547754E-05
  0.00000000E+00  0.00000000E+00 -1.73209889E-04  0.00000000E+00  0.00000000E+00
  0.00000000E+00 -2.20595139E-04  0.00000000E+00  0.00000000E+00  0.00000000E+00
  3.27443541E-05  1.04511988E-04 -2.88356009E-04 -6.14106226E-05 -5.66001658E-04
  1.38457735E-03  0.00000000E+00  0.00000000E+00 -2.21200850E-04  0.00000000E+00
  0.00000000E+00  5.71233839E-04  0.00000000E+00  0.00000000E+00  2.26260111E-04
  0.00000000E+00  0.00000000E+00  6.28829898E-04  0.00000000E+00  0.00000000E+00
 -6.45438761E-04  6.89749419E-01  0.00000000E+00  0.00000000E+00  7.15265639E-01
  0.00000000E+00  1.27864142E-02  0.00000000E+00  0.00000000E+00  1.31127860E-02
  0.00000000E+00  3.02289152E-03  0.00000000E+00  0.00000000E+00  2.19965015E-03
  0.00000000E+00  6.77469230E-06  7.01779677E-05 -2.94227855E-04 -1.99195044E-03
  0.00000000E+00  0.00000000E+00 -5.67990505E-05  0.00000000E+00  0.00000000E+00
  4.09270873E-04  0.00000000E+00  0.00000000E+00 -5.07859547E-04 -2.52389860E-05
  0.00000000E+00  0.00000000E+00 -5.21020498E-05  0.00000000E+00  0.00000000E+00
  0.00000000E+00  0.00000000E+00  0.00000000E+00  0.00000000E+00  0.00000000E+00
  0.00000000E+00 -2.76539650E-04  0.00000000E+00  0.00000000E+00  6.85124041E-04
  0.00000000E+00  0.00000000E+00  8.01693949E-05  0.00000000E+00  0.00000000E+00
  5.86861046E-05  0.00000000E+00  0.00000000E+00 -3.53419775E-04  0.00000000E+00
  0.00000000E+00  0.00000000E+00  9.93665126E-01  0.00000000E+00  0.00000000E+00
  0.00000000E+00  0.00000000E+00  1.82961994E-02  0.00000000E+00  0.00000000E+00
  0.00000000E+00  0.00000000E+00  3.49738133E-03  0.00000000E+00  0.00000000E+00
  0.00000000E+00  0.00000000E+00  0.00000000E+00  0.00000000E+00  0.00000000E+00
 -1.30420390E-05  0.00000000E+00  0.00000000E+00  7.64807703E-05  0.00000000E+00
  0.00000000E+00  1.03224099E-03  0.00000000E+00  0.00000000E+00  0.00000000E+00
  2.87247640E-04  0.00000000E+00  0.00000000E+00  0.00000000E+00  0.00000000E+00
  0.00000000E+00  0.00000000E+00  0.00000000E+00  0.00000000E+00  0.00000000E+00
  0.00000000E+00  0.00000000E+00  0.00000000E+00  0.00000000E+00  0.00000000E+00
  0.00000000E+00  0.00000000E+00  0.00000000E+00  0.00000000E+00  0.00000000E+00
  0.00000000E+00  0.00000000E+00  0.00000000E+00  0.00000000E+00  0.00000000E+00
  0.00000000E+00  0.00000000E+00  0.00000000E+00  9.93701684E-01  0.00000000E+00
  0.00000000E+00  0.00000000E+00  0.00000000E+00  1.81843024E-02  0.00000000E+00
  0.00000000E+00  0.00000000E+00  0.00000000E+00  3.05103473E-03  0.00000000E+00
  0.00000000E+00  0.00000000E+00  0.00000000E+00  0.00000000E+00  0.00000000E+00
  0.00000000E+00  0.00000000E+00  0.00000000E+00  0.00000000E+00  0.00000000E+00
  0.00000000E+00  0.00000000E+00  0.00000000E+00  0.00000000E+00  0.00000000E+00
  0.00000000E+00 -7.22832748E-05  0.00000000E+00  0.00000000E+00  0.00000000E+00
  0.00000000E+00  0.00000000E+00  0.00000000E+00 -2.82013074E-04  0.00000000E+00
  0.00000000E+00  6.98865212E-04  0.00000000E+00  0.00000000E+00  8.28457655E-05
  0.00000000E+00  0.00000000E+00  5.92077282E-05  0.00000000E+00  0.00000000E+00
 -3.52049740E-04  0.00000000E+00  0.00000000E+00  0.00000000E+00  9.93686247E-01
  0.00000000E+00  0.00000000E+00  0.00000000E+00  0.00000000E+00  1.82364881E-02
  0.00000000E+00  0.00000000E+00  0.00000000E+00  0.00000000E+00  3.48684877E-03
  0.00000000E+00  0.00000000E+00  0.00000000E+00  0.00000000E+00  0.00000000E+00
  0.00000000E+00  0.00000000E+00 -1.28215402E-05  0.00000000E+00  0.00000000E+00
  7.57567792E-05  0.00000000E+00  0.00000000E+00  1.02923423E-03  0.00000000E+00
  0.00000000E+00  0.00000000E+00  2.86385939E-04  0.00000000E+00  0.00000000E+00
  0.00000000E+00 -2.61001120E-05 -1.07591685E-04  1.79080837E-04 -1.81200909E-04
 -5.66547170E-04  1.42191116E-03  0.00000000E+00  0.00000000E+00 -2.24470967E-04
  0.00000000E+00  0.00000000E+00  5.80523478E-04  0.00000000E+00  0.00000000E+00
  2.33582555E-04  0.00000000E+00  0.00000000E+00  6.50979752E-04  0.00000000E+00
  0.00000000E+00 -6.66456631E-04  7.15237731E-01  0.00000000E+00  0.00000000E+00
 -6.89810340E-01  0.00000000E+00  1.32084808E-02  0.00000000E+00  0.00000000E+00
 -1.25980501E-02  0.00000000E+00  3.12431801E-03  0.00000000E+00  0.00000000E+00
 -2.11412286E-03  0.00000000E+00  7.00278470E-06  7.26383360E-05 -3.04437141E-04
 -2.05890707E-03  0.00000000E+00  0.00000000E+00 -5.87622920E-05  0.00000000E+00
  0.00000000E+00  4.23009841E-04  0.00000000E+00  0.00000000E+00 -5.26452005E-04
 -2.67958471E-05  0.00000000E+00  0.00000000E+00  5.00968180E-05  0.00000000E+00
  5.34185783E-07  2.12589935E-05  3.02639530E-05  2.36362977E-04  5.99353178E-04
 -2.84605204E-03  0.00000000E+00  0.00000000E+00  3.16640512E-05  0.00000000E+00
  0.00000000E+00 -1.17674446E-04  0.00000000E+00  0.00000000E+00 -2.98109143E-04
  0.00000000E+00  0.00000000E+00 -1.64796379E-03  0.00000000E+00  0.00000000E+00
  1.17863825E-03  1.79774323E-06  0.00000000E+00  0.00000000E+00 -2.27896474E-08
  0.00000000E+00 -1.27539983E-05  0.00000000E+00  0.00000000E+00  5.94624132E-08
  0.00000000E+00 -1.27813041E-03  0.00000000E+00  0.00000000E+00 -8.77070974E-07
  0.00000000E+00 -3.06335847E-01  1.04055495E+00 -1.79197965E-03  7.53112995E-03
  0.00000000E+00  0.00000000E+00 -3.41075197E-03  0.00000000E+00  0.00000000E+00
 -1.55605533E-04  0.00000000E+00  0.00000000E+00  1.98515071E-03  4.50401645E-04
  0.00000000E+00  0.00000000E+00 -4.72630275E-05  0.00000000E+00 -4.73091683E-06
 -2.04461677E-05  4.40278876E-05 -1.50201997E-04  1.81451260E-04  1.49174020E-04
  0.00000000E+00  0.00000000E+00 -8.73693400E-06  0.00000000E+00  0.00000000E+00
  3.48633869E-05  0.00000000E+00  0.00000000E+00  1.11723943E-04  0.00000000E+00
  0.00000000E+00  6.01650978E-04  0.00000000E+00  0.00000000E+00  7.49680004E-05
  6.04203518E-05  0.00000000E+00  0.00000000E+00 -3.90842208E-08  0.00000000E+00
 -1.71931265E-04  0.00000000E+00  0.00000000E+00  1.40257194E-07  0.00000000E+00
  2.97630835E-04  0.00000000E+00  0.00000000E+00  4.54097169E-07  0.00000000E+00
 -1.07311557E-03  3.77864762E-03  6.08098722E-05 -5.60875355E-04  0.00000000E+00
  0.00000000E+00  9.95558949E-01  0.00000000E+00  0.00000000E+00  1.30526176E-02
  0.00000000E+00  0.00000000E+00  8.99428598E-04 -4.58222636E-04  0.00000000E+00
  0.00000000E+00  9.57215601E-07  0.00000000E+00  0.00000000E+00  0.00000000E+00
  0.00000000E+00  0.00000000E+00  0.00000000E+00  0.00000000E+00  0.00000000E+00
  3.84954230E-06  0.00000000E+00  0.00000000E+00 -1.40787081E-05  0.00000000E+00
  0.00000000E+00 -3.29028181E-05  0.00000000E+00  0.00000000E+00 -5.87248340E-05
  0.00000000E+00  0.00000000E+00 -8.52184556E-05  0.00000000E+00  0.00000000E+00
  0.00000000E+00 -5.26770822E-07  0.00000000E+00  0.00000000E+00  0.00000000E+00
  0.00000000E+00 -1.80125341E-06  0.00000000E+00  0.00000000E+00  0.00000000E+00
  0.00000000E+00 -9.58908052E-05  0.00000000E+00  0.00000000E+00  0.00000000E+00
  0.00000000E+00  0.00000000E+00  0.00000000E+00  0.00000000E+00  9.95714228E-01
  0.00000000E+00  0.00000000E+00  1.26157115E-02  0.00000000E+00  0.00000000E+00
  1.17835886E-03  0.00000000E+00  0.00000000E+00  0.00000000E+00 -2.72329854E-04
  0.00000000E+00  0.00000000E+00  0.00000000E+00  0.00000000E+00  0.00000000E+00
  0.00000000E+00  0.00000000E+00  0.00000000E+00  3.66132284E-06  0.00000000E+00
  0.00000000E+00 -1.33994941E-05  0.00000000E+00  0.00000000E+00 -3.14239242E-05
  0.00000000E+00  0.00000000E+00 -5.65294860E-05  0.00000000E+00  0.00000000E+00
 -7.31441185E-05  0.00000000E+00  0.00000000E+00  0.00000000E+00 -3.43673984E-07
  0.00000000E+00  0.00000000E+00  0.00000000E+00  0.00000000E+00 -2.34247427E-06
  0.00000000E+00  0.00000000E+00  0.00000000E+00  0.00000000E+00 -1.01726820E-04
  0.00000000E+00  0.00000000E+00  0.00000000E+00  0.00000000E+00  0.00000000E+00
  0.00000000E+00  0.00000000E+00  9.95760320E-01  0.00000000E+00  0.00000000E+00
  1.24729329E-02  0.00000000E+00  0.00000000E+00  1.11770222E-03  0.00000000E+00
  0.00000000E+00  0.00000000E+00 -2.75085709E-04  0.00000000E+00  0.00000000E+00
  0.00000000E+00  7.06334215E-02  2.59253735E-01 -6.87752961E-01  1.17354630E+00
 -1.09330980E-04  2.42683784E-03  0.00000000E+00  0.00000000E+00  1.94152916E-03
  0.00000000E+00  0.00000000E+00 -6.59439303E-03  0.00000000E+00  0.00000000E+00
 -1.11579444E-02  0.00000000E+00  0.00000000E+00 -2.17058961E-05  0.00000000E+00
  0.00000000E+00 -1.03510988E-04  4.10973262E-05  0.00000000E+00  0.00000000E+00
 -9.80134423E-04  0.00000000E+00 -1.08091927E-04  0.00000000E+00  0.00000000E+00
  2.57547707E-03  0.00000000E+00  6.94569998E-05  0.00000000E+00  0.00000000E+00
  1.75850964E-04  0.00000000E+00  1.96604877E-05 -9.99819435E-05 -7.09566985E-06
 -1.03277630E-04  0.00000000E+00  0.00000000E+00  1.38030309E-04  0.00000000E+00
  0.00000000E+00 -1.75925807E-04  0.00000000E+00  0.00000000E+00  2.29529536E-04
  2.92190713E-04  0.00000000E+00  0.00000000E+00 -4.75471009E-06  0.00000000E+00
  0.00000000E+00  0.00000000E+00  0.00000000E+00  0.00000000E+00  0.00000000E+00
  0.00000000E+00  0.00000000E+00 -1.99157504E-01  0.00000000E+00  0.00000000E+00
  6.80321751E-01  0.00000000E+00  0.00000000E+00  1.16444475E+00  0.00000000E+00
  0.00000000E+00  1.68316890E-03  0.00000000E+00  0.00000000E+00  1.18470219E-03
  0.00000000E+00  0.00000000E+00  0.00000000E+00 -1.86869832E-03  0.00000000E+00
  0.00000000E+00  0.00000000E+00  0.00000000E+00  5.08661598E-03  0.00000000E+00
  0.00000000E+00  0.00000000E+00  0.00000000E+00  4.07172711E-04  0.00000000E+00
  0.00000000E+00  0.00000000E+00  0.00000000E+00  0.00000000E+00  0.00000000E+00
  0.00000000E+00  4.52470278E-05  0.00000000E+00  0.00000000E+00 -8.22097748E-05