SnCl DZVP                                                               
SP        ROB3LYP                                                     Gen                 
Number of atoms                            I                2
Charge                                     I                0
Multiplicity                               I                2
Number of electrons                        I               67
Number of alpha electrons                  I               34
Number of beta electrons                   I               33
Number of basis functions                  I               54
Number of independant functions            I               54
Number of point charges in /Mol/           I                0
Number of translation vectors              I                0
Number of symbols in /Mol/                 I                0
Info1-9                                    I   N=           9
         101         100           0           1           0         110
           1          18        -502
Num ILSW                                   I              100
ILSW                                       I   N=         100
           0           0           0           0           2           0
           0           0           3           0         402      200000
           0           0           0           0           0           0
           0      800000           1           1           0           0
           1           0           0           0     1000000           0
           0           0           0           0          -1           0
           0           0           0           0           0           0
           0           0           0           1           0           0
           0           0           1      720000      810000           0
           0           0           0           0           0           0
           0           0           0           0           0           0
           0           0           0           0           0           0
           0           0           0           0           0           0
           0           0           0           0           0           0
           0           0           0           0           0           0
           0           0           0           0           0           0
           0           0           0           0
Number of contracted shells                I               22
Highest angular momentum                   I                2
Largest degree of contraction              I                6
Number of primitive shells                 I               62
Pure/Cartesian d shells                    I                0
Pure/Cartesian f shells                    I                0
Virial Ratio                               R      2.001907892875503E+00
SCF Energy                                 R     -6.484950135904737E+03
Total Energy                               R     -6.484950135904737E+03
S**2                                       R      7.499999999996518E-01
S**2 after annihilation                    R      7.499999999976721E-01
RMS Density                                R      7.459931633122699E-09
Atomic numbers                             I   N=           2
          50          17
Nuclear charges                            R   N=           2
  5.00000000E+01  1.70000000E+01
Current cartesian coordinates              R   N=           6
  0.00000000E+00  0.00000000E+00  1.13205877E+00  0.00000000E+00  0.00000000E+00
 -3.32958463E+00
Atom Types                                 C   N=           2
                        
Int Atom Types                             I   N=           2
           0           0
Force Field                                I                0
MM charges                                 R   N=           2
  0.00000000E+00  0.00000000E+00
Integer atomic weights                     I   N=           2
         118          35
Real atomic weights                        R   N=           2
  1.17901800E+02  3.49688527E+01
Atom residue info                          I   N=           2
           0           0
Atom fragment info                         I   N=           2
           0           0
Atom residue num                           I   N=           2
           0           0
Nuclear spins                              I   N=           2
           0           3
Nuclear ZEff                               R   N=           2
 -6.20000000E+01 -1.42400000E+01
Nuclear QMom                               R   N=           2
  0.00000000E+00 -8.24900000E+00
Nuclear GFac                               R   N=           2
  0.00000000E+00  8.21874000E-01
MicOpt                                     I   N=           2
           0           0
Constraint Structure                       R   N=           6
  0.00000000E+00  0.00000000E+00  1.13205877E+00  0.00000000E+00  0.00000000E+00
 -3.32958463E+00
ONIOM Charges                              I   N=          16
           0           0           0           0           0           0
           0           0           0           0           0           0
           0           0           0           0
ONIOM Multiplicities                       I   N=          16
           2           0           0           0           0           0
           0           0           0           0           0           0
           0           0           0           0
Atom Layers                                I   N=           2
           1           1
Atom Modifiers                             I   N=           2
           0           0
Atom Modified Types                        C   N=           2
                        
Int Atom Modified Types                    I   N=           2
           0           0
Link Atoms                                 I   N=           2
           0           0
Atom Modified MM Charges                   R   N=           2
  0.00000000E+00  0.00000000E+00
Link Distances                             R   N=           8
  0.00000000E+00  0.00000000E+00  0.00000000E+00  0.00000000E+00  0.00000000E+00
  0.00000000E+00  0.00000000E+00  0.00000000E+00
MxBond                                     I                1
NBond                                      I   N=           2
           1           1
IBond                                      I   N=           2
           2           1
RBond                                      R   N=           2
  1.00000000E+00  1.00000000E+00
Shell types                                I   N=          22
           0           0           0           0           0           0
           1           1           1           1           1          -2
          -2          -2           0           0           0           0
           1           1           1          -2
Number of primitives per shell             I   N=          22
           6           3           3           3           2           1
           5           3           3           2           1           5
           3           1           6           3           2           1
           5           2           1           1
Shell to atom map                          I   N=          22
           1           1           1           1           1           1
           1           1           1           1           1           1
           1           1           2           2           2           2
           2           2           2           2
Primitive exponents                        R   N=          62
  2.45047360E+05  3.67500260E+04  8.34277350E+03  2.34747230E+03  7.62836200E+02
  2.62737930E+02  4.98732830E+02  6.09504580E+01  2.63056100E+01  4.83039130E+01
  8.66714370E+00  3.95646920E+00  7.76814460E+00  1.75268360E+00  7.70296100E-01
  1.20051550E+00  1.94702600E-01  7.42741000E-02  3.58169690E+03  8.46744340E+02
  2.70732080E+02  9.82183720E+01  3.74960670E+01  1.46343380E+02  1.79099630E+01
  6.91641320E+00  3.08060130E+00  1.31196840E+00  5.58685900E-01  3.00903700E-01
  1.15427300E-01  4.34033000E-02  3.54240330E+02  1.04710750E+02  3.86067210E+01
  1.53717900E+01  6.09218330E+00  4.84719880E+00  1.72875630E+00  5.65428300E-01
  1.54000000E-01  2.63514580E+04  3.94505670E+03  8.92438350E+02  2.49417430E+02
  7.97215720E+01  2.68311450E+01  5.27853010E+01  5.61564290E+00  2.10590760E+00
  3.55861490E+00  4.84798100E-01  1.73331000E-01  2.71078210E+02  6.35472080E+01
  1.97371090E+01  6.78899370E+00  2.34803030E+00  1.10668640E+00  3.82968000E-01
  1.25113300E-01  7.50000000E-01
Contraction coefficients                   R   N=          62
 -1.61619995E-03 -1.23710997E-02 -6.21338982E-02 -2.16397694E-01 -4.62974887E-01
 -3.84447789E-01 -1.13605197E-01  6.32718186E-01  4.41608590E-01 -2.65535891E-01
  8.30889672E-01  3.17672389E-01 -3.27576511E-01  7.93946826E-01  4.04934113E-01
 -3.55298218E-01  1.16195427E+00  1.00000000E+00 -7.36589962E-03 -5.67096971E-02
 -2.36337488E-01 -5.06028374E-01 -3.62604581E-01  2.48183995E-02 -4.96192591E-01
 -5.74425589E-01  4.19303772E-01  5.28903864E-01  1.39170091E-01 -3.68985771E-01
 -6.90810136E-01  1.00000000E+00 -1.32982000E-02 -9.43270000E-02 -3.11078200E-01
 -4.99583900E-01 -3.06913800E-01 -2.66455817E-01 -5.58161435E-01 -3.76159124E-01
  1.00000000E+00  1.73239996E-03  1.33108997E-02  6.66747986E-02  2.30050595E-01
  4.74230690E-01  3.59523992E-01 -9.56296060E-02  5.88084037E-01  4.86698231E-01
  2.94527427E-01 -1.12224311E+00  1.00000000E+00 -1.09256996E-02 -7.75908971E-02
 -2.77515890E-01 -5.03193281E-01 -3.34842587E-01 -3.59631274E-01 -7.10940279E-01
  1.00000000E+00  1.00000000E+00
Coordinates of each shell                  R   N=          66
  0.00000000E+00  0.00000000E+00  1.13205877E+00  0.00000000E+00  0.00000000E+00
  1.13205877E+00  0.00000000E+00  0.00000000E+00  1.13205877E+00  0.00000000E+00
  0.00000000E+00  1.13205877E+00  0.00000000E+00  0.00000000E+00  1.13205877E+00
  0.00000000E+00  0.00000000E+00  1.13205877E+00  0.00000000E+00  0.00000000E+00
  1.13205877E+00  0.00000000E+00  0.00000000E+00  1.13205877E+00  0.00000000E+00
  0.00000000E+00  1.13205877E+00  0.00000000E+00  0.00000000E+00  1.13205877E+00
  0.00000000E+00  0.00000000E+00  1.13205877E+00  0.00000000E+00  0.00000000E+00
  1.13205877E+00  0.00000000E+00  0.00000000E+00  1.13205877E+00  0.00000000E+00
  0.00000000E+00  1.13205877E+00  0.00000000E+00  0.00000000E+00 -3.32958463E+00
  0.00000000E+00  0.00000000E+00 -3.32958463E+00  0.00000000E+00  0.00000000E+00
 -3.32958463E+00  0.00000000E+00  0.00000000E+00 -3.32958463E+00  0.00000000E+00
  0.00000000E+00 -3.32958463E+00  0.00000000E+00  0.00000000E+00 -3.32958463E+00
  0.00000000E+00  0.00000000E+00 -3.32958463E+00  0.00000000E+00  0.00000000E+00
 -3.32958463E+00
Alpha Orbital Energies                     R   N=          54
 -1.03069180E+03 -1.52790727E+02 -1.42941761E+02 -1.42940910E+02 -1.42940041E+02
 -1.01541004E+02 -2.97094023E+01 -2.56241140E+01 -2.56216042E+01 -2.56191850E+01
 -1.80392076E+01 -1.80389051E+01 -1.80373349E+01 -1.80355399E+01 -1.80353190E+01
 -9.44515716E+00 -7.21004173E+00 -7.20674707E+00 -7.20483716E+00 -4.79886040E+00
 -3.42515638E+00 -3.41902637E+00 -3.41173287E+00 -1.12900129E+00 -1.12615272E+00
 -1.11936154E+00 -1.11452006E+00 -1.11428271E+00 -7.99886851E-01 -4.44093009E-01
 -3.27895706E-01 -3.23260854E-01 -3.09773976E-01 -8.92144275E-02 -1.24513235E-01
 -3.66994562E-02  9.86203986E-02  1.01357129E-01  1.16941876E-01  1.67905178E-01
  2.08297808E-01  2.09937214E-01  2.26608795E-01  2.31853298E-01  2.63440353E-01
  4.20326424E-01  4.24167006E-01  4.72644571E-01  7.33355304E-01  8.80723141E-01
  8.80746402E-01  9.18767650E-01  9.21659633E-01  1.08803071E+00
Alpha MO coefficients                      R   N=        2916
  9.94299404E-01 -1.75371117E-02  4.51343543E-03 -1.68163839E-03  9.21229185E-04
 -4.51843275E-04  0.00000000E+00  0.00000000E+00 -2.87271652E-06  0.00000000E+00
  0.00000000E+00  6.56808732E-06  0.00000000E+00  0.00000000E+00  1.51740985E-05
  0.00000000E+00  0.00000000E+00  6.67729136E-05  0.00000000E+00  0.00000000E+00
  2.08353449E-05  5.65010380E-08  0.00000000E+00  0.00000000E+00  5.95852701E-08
  0.00000000E+00  1.81006356E-09  0.00000000E+00  0.00000000E+00 -1.90080909E-08
  0.00000000E+00  2.55400508E-05  0.00000000E+00  0.00000000E+00 -5.71285929E-09
  0.00000000E+00  7.83602023E-07  6.48685161E-06 -3.38634301E-05 -4.53787952E-05
  0.00000000E+00  0.00000000E+00 -5.27043313E-06  0.00000000E+00  0.00000000E+00
  9.53407978E-06  0.00000000E+00  0.00000000E+00 -8.15402656E-05 -4.14331921E-05
  0.00000000E+00  0.00000000E+00  2.51123618E-10  0.00000000E+00  3.55956056E-01
  1.05115180E+00  1.23109465E-02 -1.43502272E-03  5.58477723E-04 -2.70199271E-04
  0.00000000E+00  0.00000000E+00  2.86793972E-04  0.00000000E+00  0.00000000E+00
  2.04605949E-05  0.00000000E+00  0.00000000E+00  1.22417911E-05  0.00000000E+00
  0.00000000E+00  3.79104360E-05  0.00000000E+00  0.00000000E+00  1.37992492E-05
  3.72976295E-07  0.00000000E+00  0.00000000E+00 -8.68977121E-06  0.00000000E+00
 -1.33951710E-07  0.00000000E+00  0.00000000E+00  1.97225022E-06  0.00000000E+00
  1.32633579E-05  0.00000000E+00  0.00000000E+00  3.44954875E-07  0.00000000E+00
  2.72116736E-07  3.61117641E-06 -1.55654447E-05 -1.96674322E-05  0.00000000E+00
  0.00000000E+00 -3.17412932E-06  0.00000000E+00  0.00000000E+00  6.46559510E-06
  0.00000000E+00  0.00000000E+00 -4.41014651E-05 -2.39115368E-05  0.00000000E+00
  0.00000000E+00 -6.16545283E-09  0.00000000E+00  0.00000000E+00  0.00000000E+00
  0.00000000E+00  0.00000000E+00  0.00000000E+00  0.00000000E+00  9.89961743E-01
  0.00000000E+00  0.00000000E+00  2.44585223E-02  0.00000000E+00  0.00000000E+00
  3.61090860E-03  0.00000000E+00  0.00000000E+00  1.14984420E-03  0.00000000E+00
  0.00000000E+00  5.31999258E-04  0.00000000E+00  0.00000000E+00  0.00000000E+00
 -1.48640472E-05  0.00000000E+00  0.00000000E+00  0.00000000E+00  0.00000000E+00
  7.12762548E-06  0.00000000E+00  0.00000000E+00  0.00000000E+00  0.00000000E+00
  1.91060055E-05  0.00000000E+00  0.00000000E+00  0.00000000E+00  0.00000000E+00
  0.00000000E+00  0.00000000E+00  0.00000000E+00  2.96796950E-06  0.00000000E+00
  0.00000000E+00 -7.57492290E-06  0.00000000E+00  0.00000000E+00  2.96122775E-05
  0.00000000E+00  0.00000000E+00  0.00000000E+00  3.73734109E-05  0.00000000E+00
  0.00000000E+00  0.00000000E+00 -1.05158914E-04 -3.19665756E-04 -7.43326210E-07
 -7.68580595E-05 -1.41863850E-04  8.04734096E-04  0.00000000E+00  0.00000000E+00
  9.89946657E-01  0.00000000E+00  0.00000000E+00  2.45171575E-02  0.00000000E+00
  0.00000000E+00  3.76304146E-03  0.00000000E+00  0.00000000E+00  1.79320754E-03
  0.00000000E+00  0.00000000E+00  3.84754680E-04 -2.94526383E-05  0.00000000E+00
  0.00000000E+00  8.18073761E-08  0.00000000E+00  5.34421179E-05  0.00000000E+00
  0.00000000E+00 -1.02012206E-08  0.00000000E+00  4.92719581E-04  0.00000000E+00
  0.00000000E+00  2.80711856E-09  0.00000000E+00  1.30722426E-05  6.43227401E-05
 -4.36955717E-04 -1.18087178E-03  0.00000000E+00  0.00000000E+00 -2.64039741E-05
  0.00000000E+00  0.00000000E+00  8.50311006E-05  0.00000000E+00  0.00000000E+00
 -7.79388485E-04 -1.69238305E-04  0.00000000E+00  0.00000000E+00  1.41300466E-10
  0.00000000E+00  0.00000000E+00  0.00000000E+00  0.00000000E+00  0.00000000E+00
  0.00000000E+00  0.00000000E+00  0.00000000E+00  9.89964485E-01  0.00000000E+00
  0.00000000E+00  2.44518065E-02  0.00000000E+00  0.00000000E+00  3.60900117E-03
  0.00000000E+00  0.00000000E+00  1.14916616E-03  0.00000000E+00  0.00000000E+00
  5.31663168E-04  0.00000000E+00  0.00000000E+00  0.00000000E+00 -1.51135555E-05
  0.00000000E+00  0.00000000E+00  0.00000000E+00  0.00000000E+00  7.18171767E-06
  0.00000000E+00  0.00000000E+00  0.00000000E+00  0.00000000E+00  1.91024785E-05
  0.00000000E+00  0.00000000E+00  0.00000000E+00  0.00000000E+00  0.00000000E+00
  0.00000000E+00  0.00000000E+00  2.96871360E-06  0.00000000E+00  0.00000000E+00
 -7.57680763E-06  0.00000000E+00  0.00000000E+00  2.96030537E-05  0.00000000E+00
  0.00000000E+00  0.00000000E+00  3.73488687E-05  0.00000000E+00  0.00000000E+00
 -2.88063643E-07  5.95604501E-06  1.60297056E-05  7.49637272E-05  2.33733852E-04
 -1.08577454E-03  0.00000000E+00  0.00000000E+00  9.43780776E-06  0.00000000E+00
  0.00000000E+00 -3.48307905E-05  0.00000000E+00  0.00000000E+00 -9.19410296E-05
  0.00000000E+00  0.00000000E+00 -5.82903829E-04  0.00000000E+00  0.00000000E+00
  4.68031648E-04  1.77494465E-06  0.00000000E+00  0.00000000E+00  1.30195759E-09
  0.00000000E+00 -6.25792325E-06  0.00000000E+00  0.00000000E+00 -4.87291100E-09
  0.00000000E+00 -4.32843680E-04  0.00000000E+00  0.00000000E+00 -2.85242085E-08
  0.00000000E+00  9.96729113E-01  1.08322383E-02  4.43231238E-03  3.41433406E-03
  0.00000000E+00  0.00000000E+00 -3.73299997E-05  0.00000000E+00  0.00000000E+00
  7.97052236E-05  0.00000000E+00  0.00000000E+00  7.71762721E-04  9.66948097E-05
  0.00000000E+00  0.00000000E+00  2.18813177E-07  0.00000000E+00 -1.57341064E-01
 -5.58446473E-01  1.12750062E+00 -1.79107273E-03  2.22476517E-03 -1.13268544E-03
  0.00000000E+00  0.00000000E+00 -6.78526285E-04  0.00000000E+00  0.00000000E+00
  1.55080672E-03  0.00000000E+00  0.00000000E+00 -9.00024835E-05  0.00000000E+00
  0.00000000E+00  1.11621381E-04  0.00000000E+00  0.00000000E+00  4.41997148E-05
  1.38968927E-05  0.00000000E+00  0.00000000E+00 -2.37293644E-04  0.00000000E+00
 -1.44641931E-06  0.00000000E+00  0.00000000E+00 -4.01051879E-05  0.00000000E+00
  4.43345964E-05  0.00000000E+00  0.00000000E+00 -6.34894627E-06  0.00000000E+00
  1.35800042E-06  1.37899093E-05 -6.60269316E-05 -6.75906410E-05  0.00000000E+00
  0.00000000E+00 -1.21587375E-05  0.00000000E+00  0.00000000E+00  2.05768015E-05
  0.00000000E+00  0.00000000E+00 -1.74666473E-04 -9.25585152E-05  0.00000000E+00
  0.00000000E+00  9.78106642E-08  0.00000000E+00  0.00000000E+00  0.00000000E+00
  0.00000000E+00  0.00000000E+00  0.00000000E+00  0.00000000E+00 -4.66832183E-01
  0.00000000E+00  0.00000000E+00  1.07652644E+00  0.00000000E+00  0.00000000E+00
 -3.71606842E-02  0.00000000E+00  0.00000000E+00 -7.31172665E-03  0.00000000E+00
  0.00000000E+00 -3.21353307E-03  0.00000000E+00  0.00000000E+00  0.00000000E+00
 -5.55472553E-04  0.00000000E+00  0.00000000E+00  0.00000000E+00  0.00000000E+00
 -8.49433826E-05  0.00000000E+00  0.00000000E+00  0.00000000E+00  0.00000000E+00
 -1.22497761E-04  0.00000000E+00  0.00000000E+00  0.00000000E+00  0.00000000E+00
  0.00000000E+00  0.00000000E+00  0.00000000E+00 -2.05833643E-05  0.00000000E+00
  0.00000000E+00  5.99604063E-05  0.00000000E+00  0.00000000E+00 -1.73861961E-04
  0.00000000E+00  0.00000000E+00  0.00000000E+00 -2.21239171E-04  0.00000000E+00
  0.00000000E+00  0.00000000E+00  2.36907674E-04  8.73050406E-04 -1.69391356E-03
  5.09821562E-04  7.82925361E-04 -4.45907275E-03  0.00000000E+00  0.00000000E+00
 -4.66741054E-01  0.00000000E+00  0.00000000E+00  1.07619894E+00  0.00000000E+00
  0.00000000E+00 -3.79669036E-02  0.00000000E+00  0.00000000E+00 -1.08595469E-02
  0.00000000E+00  0.00000000E+00 -2.39139083E-03 -4.98281915E-04  0.00000000E+00
  0.00000000E+00  7.23851961E-06  0.00000000E+00 -3.49439785E-04  0.00000000E+00
  0.00000000E+00  7.19349117E-07  0.00000000E+00 -2.76123574E-03  0.00000000E+00
  0.00000000E+00  7.26386906E-08  0.00000000E+00 -6.70283990E-05 -3.53689962E-04
  2.25283205E-03  6.43736775E-03  0.00000000E+00  0.00000000E+00  1.49199769E-04
  0.00000000E+00  0.00000000E+00 -5.27507505E-04  0.00000000E+00  0.00000000E+00
  4.29597422E-03  8.97004301E-04  0.00000000E+00  0.00000000E+00 -1.80299707E-08
  0.00000000E+00  0.00000000E+00  0.00000000E+00  0.00000000E+00  0.00000000E+00
  0.00000000E+00  0.00000000E+00  0.00000000E+00 -4.66841866E-01  0.00000000E+00
  0.00000000E+00  1.07657726E+00  0.00000000E+00  0.00000000E+00 -3.70716767E-02
  0.00000000E+00  0.00000000E+00 -7.28774771E-03  0.00000000E+00  0.00000000E+00
 -3.20398930E-03  0.00000000E+00  0.00000000E+00  0.00000000E+00 -5.65950051E-04
  0.00000000E+00  0.00000000E+00  0.00000000E+00  0.00000000E+00 -8.67530184E-05
  0.00000000E+00  0.00000000E+00  0.00000000E+00  0.00000000E+00 -1.22492166E-04
  0.00000000E+00  0.00000000E+00  0.00000000E+00  0.00000000E+00  0.00000000E+00
  0.00000000E+00  0.00000000E+00 -2.04042807E-05  0.00000000E+00  0.00000000E+00
  5.94547755E-05  0.00000000E+00  0.00000000E+00 -1.73209889E-04  0.00000000E+00
  0.00000000E+00  0.00000000E+00 -2.20595139E-04  0.00000000E+00  0.00000000E+00
 -3.27443552E-05 -1.04511992E-04  2.88356018E-04  6.14106234E-05  5.66001663E-04
 -1.38457736E-03  0.00000000E+00  0.00000000E+00  2.21200841E-04  0.00000000E+00
  0.00000000E+00 -5.71233818E-04  0.00000000E+00  0.00000000E+00 -2.26260111E-04
  0.00000000E+00  0.00000000E+00 -6.28829902E-04  0.00000000E+00  0.00000000E+00
  6.45438766E-04 -6.89749423E-01  0.00000000E+00  0.00000000E+00  7.15265635E-01
  0.00000000E+00 -1.27864143E-02  0.00000000E+00  0.00000000E+00  1.31127859E-02
  0.00000000E+00 -3.02289154E-03  0.00000000E+00  0.00000000E+00  2.19965014E-03
  0.00000000E+00 -6.77469234E-06 -7.01779682E-05  2.94227857E-04  1.99195045E-03
  0.00000000E+00  0.00000000E+00  5.67990509E-05  0.00000000E+00  0.00000000E+00
 -4.09270875E-04  0.00000000E+00  0.00000000E+00  5.07859550E-04  2.52389861E-05
  0.00000000E+00  0.00000000E+00 -5.21020495E-05  0.00000000E+00  0.00000000E+00
  0.00000000E+00  0.00000000E+00  0.00000000E+00  0.00000000E+00  0.00000000E+00
 -2.76539632E-04  0.00000000E+00  0.00000000E+00  6.85123995E-04  0.00000000E+00
  0.00000000E+00  8.01693897E-05  0.00000000E+00  0.00000000E+00  5.86861037E-05
  0.00000000E+00  0.00000000E+00 -3.53419776E-04  0.00000000E+00  0.00000000E+00
  0.00000000E+00  9.93665126E-01  0.00000000E+00  0.00000000E+00  0.00000000E+00
  0.00000000E+00  1.82961994E-02  0.00000000E+00  0.00000000E+00  0.00000000E+00
  0.00000000E+00  3.49738133E-03  0.00000000E+00  0.00000000E+00  0.00000000E+00
  0.00000000E+00  0.00000000E+00  0.00000000E+00  0.00000000E+00 -1.30420390E-05
  0.00000000E+00  0.00000000E+00  7.64807704E-05  0.00000000E+00  0.00000000E+00
  1.03224099E-03  0.00000000E+00  0.00000000E+00  0.00000000E+00  2.87247640E-04
  0.00000000E+00  0.00000000E+00  0.00000000E+00  0.00000000E+00  0.00000000E+00
  0.00000000E+00  0.00000000E+00  0.00000000E+00  0.00000000E+00  0.00000000E+00
  0.00000000E+00  0.00000000E+00  0.00000000E+00  0.00000000E+00  0.00000000E+00
  0.00000000E+00  0.00000000E+00  0.00000000E+00  0.00000000E+00  0.00000000E+00
  0.00000000E+00  0.00000000E+00  0.00000000E+00  0.00000000E+00  0.00000000E+00
  0.00000000E+00  0.00000000E+00  0.00000000E+00  9.93701684E-01  0.00000000E+00
  0.00000000E+00  0.00000000E+00  0.00000000E+00  1.81843024E-02  0.00000000E+00
  0.00000000E+00  0.00000000E+00  0.00000000E+00  3.05103473E-03  0.00000000E+00
  0.00000000E+00  0.00000000E+00  0.00000000E+00  0.00000000E+00  0.00000000E+00
  0.00000000E+00  0.00000000E+00  0.00000000E+00  0.00000000E+00  0.00000000E+00
  0.00000000E+00  0.00000000E+00  0.00000000E+00  0.00000000E+00  0.00000000E+00
  0.00000000E+00 -7.22832748E-05  0.00000000E+00  0.00000000E+00  0.00000000E+00
  0.00000000E+00  0.00000000E+00  0.00000000E+00  0.00000000E+00 -2.82013057E-04
  0.00000000E+00  0.00000000E+00  6.98865169E-04  0.00000000E+00  0.00000000E+00
  8.28457593E-05  0.00000000E+00  0.00000000E+00  5.92077270E-05  0.00000000E+00
  0.00000000E+00 -3.52049741E-04  0.00000000E+00  0.00000000E+00  0.00000000E+00
  9.93686247E-01  0.00000000E+00  0.00000000E+00  0.00000000E+00  0.00000000E+00
  1.82364881E-02  0.00000000E+00  0.00000000E+00  0.00000000E+00  0.00000000E+00
  3.48684877E-03  0.00000000E+00  0.00000000E+00  0.00000000E+00  0.00000000E+00
  0.00000000E+00  0.00000000E+00  0.00000000E+00 -1.28215403E-05  0.00000000E+00
  0.00000000E+00  7.57567794E-05  0.00000000E+00  0.00000000E+00  1.02923423E-03
  0.00000000E+00  0.00000000E+00  0.00000000E+00  2.86385939E-04  0.00000000E+00
  0.00000000E+00 -2.61001139E-05 -1.07591691E-04  1.79080852E-04 -1.81200908E-04
 -5.66547165E-04  1.42191115E-03  0.00000000E+00  0.00000000E+00 -2.24470956E-04
  0.00000000E+00  0.00000000E+00  5.80523449E-04  0.00000000E+00  0.00000000E+00
  2.33582550E-04  0.00000000E+00  0.00000000E+00  6.50979747E-04  0.00000000E+00
  0.00000000E+00 -6.66456627E-04  7.15237727E-01  0.00000000E+00  0.00000000E+00
  6.89810344E-01  0.00000000E+00  1.32084807E-02  0.00000000E+00  0.00000000E+00
  1.25980502E-02  0.00000000E+00  3.12431799E-03  0.00000000E+00  0.00000000E+00
  2.11412288E-03  0.00000000E+00  7.00278465E-06  7.26383356E-05 -3.04437139E-04
 -2.05890705E-03  0.00000000E+00  0.00000000E+00 -5.87622917E-05  0.00000000E+00
  0.00000000E+00  4.23009839E-04  0.00000000E+00  0.00000000E+00 -5.26452001E-04
 -2.67958469E-05  0.00000000E+00  0.00000000E+00 -5.00968183E-05  0.00000000E+00
  5.34185715E-07  2.12589933E-05  3.02639537E-05  2.36362976E-04  5.99353181E-04
 -2.84605205E-03  0.00000000E+00  0.00000000E+00  3.16640509E-05  0.00000000E+00
  0.00000000E+00 -1.17674446E-04  0.00000000E+00  0.00000000E+00 -2.98109140E-04
  0.00000000E+00  0.00000000E+00 -1.64796379E-03  0.00000000E+00  0.00000000E+00
  1.17863826E-03  1.79774306E-06  0.00000000E+00  0.00000000E+00  2.27895436E-08
  0.00000000E+00 -1.27539977E-05  0.00000000E+00  0.00000000E+00 -5.94621113E-08
  0.00000000E+00 -1.27813040E-03  0.00000000E+00  0.00000000E+00  8.77071457E-07
  0.00000000E+00 -3.06335847E-01  1.04055495E+00 -1.79197958E-03  7.53112997E-03
  0.00000000E+00  0.00000000E+00 -3.41075160E-03  0.00000000E+00  0.00000000E+00
 -1.55605517E-04  0.00000000E+00  0.00000000E+00  1.98515072E-03  4.50401615E-04
  0.00000000E+00  0.00000000E+00  4.72630056E-05  0.00000000E+00 -4.73091677E-06
 -2.04461673E-05  4.40278874E-05 -1.50201994E-04  1.81451266E-04  1.49174022E-04
  0.00000000E+00  0.00000000E+00 -8.73693356E-06  0.00000000E+00  0.00000000E+00
  3.48633853E-05  0.00000000E+00  0.00000000E+00  1.11723940E-04  0.00000000E+00
  0.00000000E+00  6.01650976E-04  0.00000000E+00  0.00000000E+00  7.49680017E-05
  6.04203525E-05  0.00000000E+00  0.00000000E+00  3.90842321E-08  0.00000000E+00
 -1.71931268E-04  0.00000000E+00  0.00000000E+00 -1.40257227E-07  0.00000000E+00
  2.97630819E-04  0.00000000E+00  0.00000000E+00 -4.54096902E-07  0.00000000E+00
 -1.07311546E-03  3.77864722E-03  6.08098624E-05 -5.60875359E-04  0.00000000E+00
  0.00000000E+00  9.95558950E-01  0.00000000E+00  0.00000000E+00  1.30526174E-02
  0.00000000E+00  0.00000000E+00  8.99428548E-04 -4.58222618E-04  0.00000000E+00
  0.00000000E+00 -9.57217270E-07  0.00000000E+00  0.00000000E+00  0.00000000E+00
  0.00000000E+00  0.00000000E+00  0.00000000E+00  0.00000000E+00  3.84954229E-06
  0.00000000E+00  0.00000000E+00 -1.40787080E-05  0.00000000E+00  0.00000000E+00
 -3.29028180E-05  0.00000000E+00  0.00000000E+00 -5.87248344E-05  0.00000000E+00
  0.00000000E+00 -8.52184503E-05  0.00000000E+00  0.00000000E+00  0.00000000E+00
 -5.26770898E-07  0.00000000E+00  0.00000000E+00  0.00000000E+00  0.00000000E+00
 -1.80125316E-06  0.00000000E+00  0.00000000E+00  0.00000000E+00  0.00000000E+00
 -9.58908063E-05  0.00000000E+00  0.00000000E+00  0.00000000E+00  0.00000000E+00
  0.00000000E+00  0.00000000E+00  0.00000000E+00  9.95714228E-01  0.00000000E+00
  0.00000000E+00  1.26157114E-02  0.00000000E+00  0.00000000E+00  1.17835884E-03
  0.00000000E+00  0.00000000E+00  0.00000000E+00 -2.72329835E-04  0.00000000E+00
  0.00000000E+00  0.00000000E+00  0.00000000E+00  0.00000000E+00  0.00000000E+00
  0.00000000E+00  0.00000000E+00  0.00000000E+00  0.00000000E+00  3.66132278E-06
  0.00000000E+00  0.00000000E+00 -1.33994939E-05  0.00000000E+00  0.00000000E+00
 -3.14239237E-05  0.00000000E+00  0.00000000E+00 -5.65294846E-05  0.00000000E+00
  0.00000000E+00 -7.31441193E-05  0.00000000E+00  0.00000000E+00  0.00000000E+00
 -3.43674128E-07  0.00000000E+00  0.00000000E+00  0.00000000E+00  0.00000000E+00
 -2.34247382E-06  0.00000000E+00  0.00000000E+00  0.00000000E+00  0.00000000E+00
 -1.01726817E-04  0.00000000E+00  0.00000000E+00  0.00000000E+00  0.00000000E+00
  0.00000000E+00  0.00000000E+00  0.00000000E+00  9.95760320E-01  0.00000000E+00
  0.00000000E+00  1.24729329E-02  0.00000000E+00  0.00000000E+00  1.11770223E-03
  0.00000000E+00  0.00000000E+00  0.00000000E+00 -2.75085685E-04  0.00000000E+00
  0.00000000E+00  7.06334215E-02  2.59253735E-01 -6.87752961E-01  1.17354630E+00
 -1.09330897E-04  2.42683779E-03  0.00000000E+00  0.00000000E+00  1.94152903E-03
  0.00000000E+00  0.00000000E+00 -6.59439259E-03  0.00000000E+00  0.00000000E+00
 -1.11579437E-02  0.00000000E+00  0.00000000E+00 -2.17059288E-05  0.00000000E+00
  0.00000000E+00 -1.03510994E-04  4.10973191E-05  0.00000000E+00  0.00000000E+00
  9.80134405E-04  0.00000000E+00 -1.08091909E-04  0.00000000E+00  0.00000000E+00
 -2.57547702E-03  0.00000000E+00  6.94569934E-05  0.00000000E+00  0.00000000E+00
 -1.75850964E-04  0.00000000E+00  1.96604875E-05 -9.99819446E-05 -7.09566294E-06
 -1.03277608E-04  0.00000000E+00  0.00000000E+00  1.38030308E-04  0.00000000E+00
  0.00000000E+00 -1.75925806E-04  0.00000000E+00  0.00000000E+00  2.29529546E-04
  2.92190711E-04  0.00000000E+00  0.00000000E+00  4.75470946E-06  0.00000000E+00
  0.00000000E+00  0.00000000E+00  0.00000000E+00  0.00000000E+00  0.00000000E+00
  0.00000000E+00 -1.99157504E-01  0.00000000E+00  0.00000000E+00  6.80321751E-01
  0.00000000E+00  0.00000000E+00  1.16444475E+00  0.00000000E+00  0.00000000E+00
  1.68316879E-03  0.00000000E+00  0.00000000E+00  1.18470213E-03  0.00000000E+00
  0.00000000E+00  0.00000000E+00 -1.86869818E-03  0.00000000E+00  0.00000000E+00
  0.00000000E+00  0.00000000E+00  5.08661561E-03  0.00000000E+00  0.00000000E+00
  0.00000000E+00  0.00000000E+00  4.07172715E-04  0.00000000E+00  0.00000000E+00
  0.00000000E+00  0.00000000E+00  0.00000000E+00  0.00000000E+00  0.00000000E+00
  4.52470254E-05  0.00000000E+00  0.00000000E+00 -8.22097686E-05  0.00000000E+00